s 1.000000000 _0_ AGT  --- 0 tcp 40 [0 0 0 0] ------- [0:0 2:0 32 0] [0 0] 0 0
r 1.000000000 _0_ RTR  --- 0 tcp 40 [0 0 0 0] ------- [0:0 2:0 32 0] [0 0] 0 0
s 1.000000000 _0_ RTR  --- 0 AODV 48 [0 0 0 0] ------- [0:255 -1:255 30 0] [0x2 1 1 [2 0] [0 4]] (REQUEST)
s 1.000115000 _0_ MAC  --- 0 AODV 106 [0 ffffffff 0 800] ------- [0:255 -1:255 30 0] [0x2 1 1 [2 0] [0 4]] (REQUEST)
r 1.000963554 _3_ MAC  --- 0 AODV 48 [0 ffffffff 0 800] ------- [0:255 -1:255 30 0] [0x2 1 1 [2 0] [0 4]] (REQUEST)
r 1.000963604 _1_ MAC  --- 0 AODV 48 [0 ffffffff 0 800] ------- [0:255 -1:255 30 0] [0x2 1 1 [2 0] [0 4]] (REQUEST)
r 1.000963808 _4_ MAC  --- 0 AODV 48 [0 ffffffff 0 800] ------- [0:255 -1:255 30 0] [0x2 1 1 [2 0] [0 4]] (REQUEST)
r 1.000988554 _3_ RTR  --- 0 AODV 48 [0 ffffffff 0 800] ------- [0:255 -1:255 30 0] [0x2 1 1 [2 0] [0 4]] (REQUEST)
r 1.000988604 _1_ RTR  --- 0 AODV 48 [0 ffffffff 0 800] ------- [0:255 -1:255 30 0] [0x2 1 1 [2 0] [0 4]] (REQUEST)
r 1.000988808 _4_ RTR  --- 0 AODV 48 [0 ffffffff 0 800] ------- [0:255 -1:255 30 0] [0x2 1 1 [2 0] [0 4]] (REQUEST)
s 1.001869781 _3_ RTR  --- 0 AODV 48 [0 ffffffff 0 800] ------- [3:255 -1:255 29 0] [0x2 2 1 [2 0] [0 4]] (REQUEST)
s 1.002104781 _3_ MAC  --- 0 AODV 106 [0 ffffffff 3 800] ------- [3:255 -1:255 29 0] [0x2 2 1 [2 0] [0 4]] (REQUEST)
r 1.002953335 _0_ MAC  --- 0 AODV 48 [0 ffffffff 3 800] ------- [3:255 -1:255 29 0] [0x2 2 1 [2 0] [0 4]] (REQUEST)
r 1.002953386 _4_ MAC  --- 0 AODV 48 [0 ffffffff 3 800] ------- [3:255 -1:255 29 0] [0x2 2 1 [2 0] [0 4]] (REQUEST)
r 1.002953592 _1_ MAC  --- 0 AODV 48 [0 ffffffff 3 800] ------- [3:255 -1:255 29 0] [0x2 2 1 [2 0] [0 4]] (REQUEST)
r 1.002978335 _0_ RTR  --- 0 AODV 48 [0 ffffffff 3 800] ------- [3:255 -1:255 29 0] [0x2 2 1 [2 0] [0 4]] (REQUEST)
r 1.002978386 _4_ RTR  --- 0 AODV 48 [0 ffffffff 3 800] ------- [3:255 -1:255 29 0] [0x2 2 1 [2 0] [0 4]] (REQUEST)
r 1.002978592 _1_ RTR  --- 0 AODV 48 [0 ffffffff 3 800] ------- [3:255 -1:255 29 0] [0x2 2 1 [2 0] [0 4]] (REQUEST)
s 1.005400337 _1_ RTR  --- 0 AODV 48 [0 ffffffff 0 800] ------- [1:255 -1:255 29 0] [0x2 2 1 [2 0] [0 4]] (REQUEST)
s 1.005715337 _1_ MAC  --- 0 AODV 106 [0 ffffffff 1 800] ------- [1:255 -1:255 29 0] [0x2 2 1 [2 0] [0 4]] (REQUEST)
r 1.006563861 _4_ MAC  --- 0 AODV 48 [0 ffffffff 1 800] ------- [1:255 -1:255 29 0] [0x2 2 1 [2 0] [0 4]] (REQUEST)
r 1.006563941 _0_ MAC  --- 0 AODV 48 [0 ffffffff 1 800] ------- [1:255 -1:255 29 0] [0x2 2 1 [2 0] [0 4]] (REQUEST)
r 1.006563954 _2_ MAC  --- 0 AODV 48 [0 ffffffff 1 800] ------- [1:255 -1:255 29 0] [0x2 2 1 [2 0] [0 4]] (REQUEST)
r 1.006564108 _5_ MAC  --- 0 AODV 48 [0 ffffffff 1 800] ------- [1:255 -1:255 29 0] [0x2 2 1 [2 0] [0 4]] (REQUEST)
r 1.006564148 _3_ MAC  --- 0 AODV 48 [0 ffffffff 1 800] ------- [1:255 -1:255 29 0] [0x2 2 1 [2 0] [0 4]] (REQUEST)
r 1.006588861 _4_ RTR  --- 0 AODV 48 [0 ffffffff 1 800] ------- [1:255 -1:255 29 0] [0x2 2 1 [2 0] [0 4]] (REQUEST)
r 1.006588941 _0_ RTR  --- 0 AODV 48 [0 ffffffff 1 800] ------- [1:255 -1:255 29 0] [0x2 2 1 [2 0] [0 4]] (REQUEST)
r 1.006588954 _2_ RTR  --- 0 AODV 48 [0 ffffffff 1 800] ------- [1:255 -1:255 29 0] [0x2 2 1 [2 0] [0 4]] (REQUEST)
s 1.006588954 _2_ RTR  --- 0 AODV 44 [0 0 0 0] ------- [2:255 0:255 30 1] [0x4 1 [2 4] 10.000000] (REPLY)
r 1.006589108 _5_ RTR  --- 0 AODV 48 [0 ffffffff 1 800] ------- [1:255 -1:255 29 0] [0x2 2 1 [2 0] [0 4]] (REQUEST)
r 1.006589148 _3_ RTR  --- 0 AODV 48 [0 ffffffff 1 800] ------- [1:255 -1:255 29 0] [0x2 2 1 [2 0] [0 4]] (REQUEST)
s 1.006883954 _2_ MAC  --- 0 ARP 86 [0 ffffffff 2 806] ------- [REQUEST 2/2 0/1]
r 1.007572446 _5_ MAC  --- 0 ARP 28 [0 ffffffff 2 806] ------- [REQUEST 2/2 0/1]
r 1.007572571 _1_ MAC  --- 0 ARP 28 [0 ffffffff 2 806] ------- [REQUEST 2/2 0/1]
r 1.007572732 _4_ MAC  --- 0 ARP 28 [0 ffffffff 2 806] ------- [REQUEST 2/2 0/1]
s 1.007722571 _1_ MAC  --- 0 RTS 44 [52e 2 1 0] 
r 1.008075188 _2_ MAC  --- 0 RTS 44 [52e 2 1 0] 
s 1.008085188 _2_ MAC  --- 0 CTS 38 [3f4 1 0 0] 
r 1.008389805 _1_ MAC  --- 0 CTS 38 [3f4 1 0 0] 
s 1.008399805 _1_ MAC  --- 0 ARP 86 [13a 2 1 806] ------- [REPLY 1/1 2/2]
s 1.008980363 _4_ RTR  --- 0 AODV 48 [0 ffffffff 0 800] ------- [4:255 -1:255 29 0] [0x2 2 1 [2 0] [0 4]] (REQUEST)
r 1.009088422 _2_ MAC  --- 0 ARP 28 [13a 2 1 806] ------- [REPLY 1/1 2/2]
s 1.009098422 _2_ MAC  --- 0 ACK 38 [0 1 0 0] 
r 1.009403039 _1_ MAC  --- 0 ACK 38 [0 1 0 0] 
s 1.009612422 _2_ MAC  --- 0 RTS 44 [5ae 1 2 0] 
s 1.009679898 _5_ RTR  --- 0 AODV 48 [0 ffffffff 1 800] ------- [5:255 -1:255 28 0] [0x2 3 1 [2 0] [0 4]] (REQUEST)
r 1.009965039 _1_ MAC  --- 0 RTS 44 [5ae 1 2 0] 
s 1.009975039 _1_ MAC  --- 0 CTS 38 [474 2 0 0] 
r 1.010279656 _2_ MAC  --- 0 CTS 38 [474 2 0 0] 
s 1.010289656 _2_ MAC  --- 0 AODV 102 [13a 1 2 800] ------- [2:255 0:255 30 1] [0x4 1 [2 4] 10.000000] (REPLY)
r 1.011106273 _1_ MAC  --- 0 AODV 44 [13a 1 2 800] ------- [2:255 0:255 30 1] [0x4 1 [2 4] 10.000000] (REPLY)
s 1.011116273 _1_ MAC  --- 0 ACK 38 [0 2 0 0] 
r 1.011131273 _1_ RTR  --- 0 AODV 44 [13a 1 2 800] ------- [2:255 0:255 30 1] [0x4 1 [2 4] 10.000000] (REPLY)
f 1.011131273 _1_ RTR  --- 0 AODV 44 [13a 1 2 800] ------- [2:255 0:255 29 0] [0x4 2 [2 4] 10.000000] (REPLY)
r 1.011420889 _2_ MAC  --- 0 ACK 38 [0 2 0 0] 
s 1.011690273 _1_ MAC  --- 0 ARP 86 [0 ffffffff 1 806] ------- [REQUEST 1/1 0/0]
r 1.012378797 _4_ MAC  --- 0 ARP 28 [0 ffffffff 1 806] ------- [REQUEST 1/1 0/0]
r 1.012378876 _0_ MAC  --- 0 ARP 28 [0 ffffffff 1 806] ------- [REQUEST 1/1 0/0]
r 1.012378889 _2_ MAC  --- 0 ARP 28 [0 ffffffff 1 806] ------- [REQUEST 1/1 0/0]
r 1.012379043 _5_ MAC  --- 0 ARP 28 [0 ffffffff 1 806] ------- [REQUEST 1/1 0/0]
r 1.012379083 _3_ MAC  --- 0 ARP 28 [0 ffffffff 1 806] ------- [REQUEST 1/1 0/0]
s 1.012469043 _5_ MAC  --- 0 AODV 106 [0 ffffffff 5 800] ------- [5:255 -1:255 28 0] [0x2 3 1 [2 0] [0 4]] (REQUEST)
r 1.013317534 _2_ MAC  --- 0 AODV 48 [0 ffffffff 5 800] ------- [5:255 -1:255 28 0] [0x2 3 1 [2 0] [0 4]] (REQUEST)
r 1.013317596 _4_ MAC  --- 0 AODV 48 [0 ffffffff 5 800] ------- [5:255 -1:255 28 0] [0x2 3 1 [2 0] [0 4]] (REQUEST)
r 1.013317813 _1_ MAC  --- 0 AODV 48 [0 ffffffff 5 800] ------- [5:255 -1:255 28 0] [0x2 3 1 [2 0] [0 4]] (REQUEST)
r 1.013342534 _2_ RTR  --- 0 AODV 48 [0 ffffffff 5 800] ------- [5:255 -1:255 28 0] [0x2 3 1 [2 0] [0 4]] (REQUEST)
r 1.013342596 _4_ RTR  --- 0 AODV 48 [0 ffffffff 5 800] ------- [5:255 -1:255 28 0] [0x2 3 1 [2 0] [0 4]] (REQUEST)
r 1.013342813 _1_ RTR  --- 0 AODV 48 [0 ffffffff 5 800] ------- [5:255 -1:255 28 0] [0x2 3 1 [2 0] [0 4]] (REQUEST)
s 1.013527596 _4_ MAC  --- 0 AODV 106 [0 ffffffff 4 800] ------- [4:255 -1:255 29 0] [0x2 2 1 [2 0] [0 4]] (REQUEST)
r 1.014376120 _1_ MAC  --- 0 AODV 48 [0 ffffffff 4 800] ------- [4:255 -1:255 29 0] [0x2 2 1 [2 0] [0 4]] (REQUEST)
r 1.014376150 _5_ MAC  --- 0 AODV 48 [0 ffffffff 4 800] ------- [4:255 -1:255 29 0] [0x2 2 1 [2 0] [0 4]] (REQUEST)
r 1.014376201 _3_ MAC  --- 0 AODV 48 [0 ffffffff 4 800] ------- [4:255 -1:255 29 0] [0x2 2 1 [2 0] [0 4]] (REQUEST)
r 1.014376374 _2_ MAC  --- 0 AODV 48 [0 ffffffff 4 800] ------- [4:255 -1:255 29 0] [0x2 2 1 [2 0] [0 4]] (REQUEST)
r 1.014376405 _0_ MAC  --- 0 AODV 48 [0 ffffffff 4 800] ------- [4:255 -1:255 29 0] [0x2 2 1 [2 0] [0 4]] (REQUEST)
r 1.014401120 _1_ RTR  --- 0 AODV 48 [0 ffffffff 4 800] ------- [4:255 -1:255 29 0] [0x2 2 1 [2 0] [0 4]] (REQUEST)
r 1.014401150 _5_ RTR  --- 0 AODV 48 [0 ffffffff 4 800] ------- [4:255 -1:255 29 0] [0x2 2 1 [2 0] [0 4]] (REQUEST)
r 1.014401201 _3_ RTR  --- 0 AODV 48 [0 ffffffff 4 800] ------- [4:255 -1:255 29 0] [0x2 2 1 [2 0] [0 4]] (REQUEST)
r 1.014401374 _2_ RTR  --- 0 AODV 48 [0 ffffffff 4 800] ------- [4:255 -1:255 29 0] [0x2 2 1 [2 0] [0 4]] (REQUEST)
r 1.014401405 _0_ RTR  --- 0 AODV 48 [0 ffffffff 4 800] ------- [4:255 -1:255 29 0] [0x2 2 1 [2 0] [0 4]] (REQUEST)
s 1.014746405 _0_ MAC  --- 0 RTS 44 [52e 1 0 0] 
r 1.015099008 _1_ MAC  --- 0 RTS 44 [52e 1 0 0] 
s 1.015109008 _1_ MAC  --- 0 CTS 38 [3f4 0 0 0] 
r 1.015413612 _0_ MAC  --- 0 CTS 38 [3f4 0 0 0] 
s 1.015423612 _0_ MAC  --- 0 ARP 86 [13a 1 0 806] ------- [REPLY 0/0 1/1]
r 1.016112215 _1_ MAC  --- 0 ARP 28 [13a 1 0 806] ------- [REPLY 0/0 1/1]
s 1.016122215 _1_ MAC  --- 0 ACK 38 [0 0 0 0] 
r 1.016426819 _0_ MAC  --- 0 ACK 38 [0 0 0 0] 
s 1.016696215 _1_ MAC  --- 0 RTS 44 [5ae 0 1 0] 
r 1.017048819 _0_ MAC  --- 0 RTS 44 [5ae 0 1 0] 
s 1.017058819 _0_ MAC  --- 0 CTS 38 [474 1 0 0] 
r 1.017363423 _1_ MAC  --- 0 CTS 38 [474 1 0 0] 
s 1.017373423 _1_ MAC  --- 0 AODV 102 [13a 0 1 800] ------- [2:255 0:255 29 0] [0x4 2 [2 4] 10.000000] (REPLY)
r 1.018190026 _0_ MAC  --- 0 AODV 44 [13a 0 1 800] ------- [2:255 0:255 29 0] [0x4 2 [2 4] 10.000000] (REPLY)
s 1.018200026 _0_ MAC  --- 0 ACK 38 [0 1 0 0] 
r 1.018215026 _0_ RTR  --- 0 AODV 44 [13a 0 1 800] ------- [2:255 0:255 29 0] [0x4 2 [2 4] 10.000000] (REPLY)
s 1.018215026 _0_ RTR  --- 0 tcp 40 [0 0 0 0] ------- [0:0 2:0 30 1] [0 0] 0 0
r 1.018504630 _1_ MAC  --- 0 ACK 38 [0 1 0 0] 
s 1.018794026 _0_ MAC  --- 0 RTS 44 [58e 1 0 0] 
r 1.019146630 _1_ MAC  --- 0 RTS 44 [58e 1 0 0] 
s 1.019156630 _1_ MAC  --- 0 CTS 38 [454 0 0 0] 
r 1.019461233 _0_ MAC  --- 0 CTS 38 [454 0 0 0] 
s 1.019471233 _0_ MAC  --- 0 tcp 98 [13a 1 0 800] ------- [0:0 2:0 30 1] [0 0] 0 0
r 1.020255837 _1_ MAC  --- 0 tcp 40 [13a 1 0 800] ------- [0:0 2:0 30 1] [0 0] 1 0
s 1.020265837 _1_ MAC  --- 0 ACK 38 [0 0 0 0] 
r 1.020280837 _1_ RTR  --- 0 tcp 40 [13a 1 0 800] ------- [0:0 2:0 30 1] [0 0] 1 0
f 1.020280837 _1_ RTR  --- 0 tcp 40 [13a 1 0 800] ------- [0:0 2:0 29 2] [0 0] 1 0
r 1.020570440 _0_ MAC  --- 0 ACK 38 [0 0 0 0] 
s 1.020839837 _1_ MAC  --- 0 RTS 44 [58e 2 1 0] 
r 1.021192454 _2_ MAC  --- 0 RTS 44 [58e 2 1 0] 
s 1.021202454 _2_ MAC  --- 0 CTS 38 [454 1 0 0] 
r 1.021507071 _1_ MAC  --- 0 CTS 38 [454 1 0 0] 
s 1.021517071 _1_ MAC  --- 0 tcp 98 [13a 2 1 800] ------- [0:0 2:0 29 2] [0 0] 1 0
r 1.022301687 _2_ MAC  --- 0 tcp 40 [13a 2 1 800] ------- [0:0 2:0 29 2] [0 0] 2 0
s 1.022311687 _2_ MAC  --- 0 ACK 38 [0 1 0 0] 
r 1.022326687 _2_ AGT  --- 0 tcp 40 [13a 2 1 800] ------- [0:0 2:0 29 2] [0 0] 2 0
s 1.022326687 _2_ AGT  --- 1 ack 40 [0 0 0 0] ------- [2:0 0:0 32 0] [0 0] 0 0
r 1.022326687 _2_ RTR  --- 1 ack 40 [0 0 0 0] ------- [2:0 0:0 32 0] [0 0] 0 0
s 1.022326687 _2_ RTR  --- 1 ack 40 [0 0 0 0] ------- [2:0 0:0 30 1] [0 0] 0 0
r 1.022616304 _1_ MAC  --- 0 ACK 38 [0 1 0 0] 
s 1.023245687 _2_ MAC  --- 0 RTS 44 [58e 1 2 0] 
r 1.023598304 _1_ MAC  --- 0 RTS 44 [58e 1 2 0] 
s 1.023608304 _1_ MAC  --- 0 CTS 38 [454 2 0 0] 
r 1.023912921 _2_ MAC  --- 0 CTS 38 [454 2 0 0] 
s 1.023922921 _2_ MAC  --- 1 ack 98 [13a 1 2 800] ------- [2:0 0:0 30 1] [0 0] 0 0
r 1.024707538 _1_ MAC  --- 1 ack 40 [13a 1 2 800] ------- [2:0 0:0 30 1] [0 0] 1 0
s 1.024717538 _1_ MAC  --- 0 ACK 38 [0 2 0 0] 
r 1.024732538 _1_ RTR  --- 1 ack 40 [13a 1 2 800] ------- [2:0 0:0 30 1] [0 0] 1 0
f 1.024732538 _1_ RTR  --- 1 ack 40 [13a 1 2 800] ------- [2:0 0:0 29 0] [0 0] 1 0
r 1.025022155 _2_ MAC  --- 0 ACK 38 [0 2 0 0] 
s 1.025611538 _1_ MAC  --- 0 RTS 44 [58e 0 1 0] 
r 1.025964142 _0_ MAC  --- 0 RTS 44 [58e 0 1 0] 
s 1.025974142 _0_ MAC  --- 0 CTS 38 [454 1 0 0] 
r 1.026278745 _1_ MAC  --- 0 CTS 38 [454 1 0 0] 
s 1.026288745 _1_ MAC  --- 1 ack 98 [13a 0 1 800] ------- [2:0 0:0 29 0] [0 0] 1 0
r 1.027073349 _0_ MAC  --- 1 ack 40 [13a 0 1 800] ------- [2:0 0:0 29 0] [0 0] 2 0
s 1.027083349 _0_ MAC  --- 0 ACK 38 [0 1 0 0] 
r 1.027098349 _0_ AGT  --- 1 ack 40 [13a 0 1 800] ------- [2:0 0:0 29 0] [0 0] 2 0
s 1.027098349 _0_ AGT  --- 2 tcp 1540 [0 0 0 0] ------- [0:0 2:0 32 0] [1 0] 0 0
r 1.027098349 _0_ RTR  --- 2 tcp 1540 [0 0 0 0] ------- [0:0 2:0 32 0] [1 0] 0 0
s 1.027098349 _0_ AGT  --- 3 tcp 1540 [0 0 0 0] ------- [0:0 2:0 32 0] [2 0] 0 0
r 1.027098349 _0_ RTR  --- 3 tcp 1540 [0 0 0 0] ------- [0:0 2:0 32 0] [2 0] 0 0
s 1.027098349 _0_ RTR  --- 2 tcp 1540 [0 0 0 0] ------- [0:0 2:0 30 1] [1 0] 0 0
s 1.027098349 _0_ RTR  --- 3 tcp 1540 [0 0 0 0] ------- [0:0 2:0 30 1] [2 0] 0 0
r 1.027387952 _1_ MAC  --- 0 ACK 38 [0 1 0 0] 
s 1.027477349 _0_ MAC  --- 0 RTS 44 [346e 1 0 0] 
r 1.027829952 _1_ MAC  --- 0 RTS 44 [346e 1 0 0] 
s 1.027839952 _1_ MAC  --- 0 CTS 38 [3334 0 0 0] 
r 1.028144556 _0_ MAC  --- 0 CTS 38 [3334 0 0 0] 
s 1.028154556 _0_ MAC  --- 2 tcp 1598 [13a 1 0 800] ------- [0:0 2:0 30 1] [1 0] 0 0
r 1.040939160 _1_ MAC  --- 2 tcp 1540 [13a 1 0 800] ------- [0:0 2:0 30 1] [1 0] 1 0
s 1.040949160 _1_ MAC  --- 0 ACK 38 [0 0 0 0] 
r 1.040964160 _1_ RTR  --- 2 tcp 1540 [13a 1 0 800] ------- [0:0 2:0 30 1] [1 0] 1 0
f 1.040964160 _1_ RTR  --- 2 tcp 1540 [13a 1 0 800] ------- [0:0 2:0 29 2] [1 0] 1 0
r 1.041253763 _0_ MAC  --- 0 ACK 38 [0 0 0 0] 
s 1.041583160 _1_ MAC  --- 0 RTS 44 [346e 2 1 0] 
r 1.041935776 _2_ MAC  --- 0 RTS 44 [346e 2 1 0] 
s 1.041945776 _2_ MAC  --- 0 CTS 38 [3334 1 0 0] 
r 1.042250393 _1_ MAC  --- 0 CTS 38 [3334 1 0 0] 
s 1.042260393 _1_ MAC  --- 2 tcp 1598 [13a 2 1 800] ------- [0:0 2:0 29 2] [1 0] 1 0
r 1.055045010 _2_ MAC  --- 2 tcp 1540 [13a 2 1 800] ------- [0:0 2:0 29 2] [1 0] 2 0
s 1.055055010 _2_ MAC  --- 0 ACK 38 [0 1 0 0] 
r 1.055070010 _2_ AGT  --- 2 tcp 1540 [13a 2 1 800] ------- [0:0 2:0 29 2] [1 0] 2 0
s 1.055070010 _2_ AGT  --- 4 ack 40 [0 0 0 0] ------- [2:0 0:0 32 0] [1 0] 0 0
r 1.055070010 _2_ RTR  --- 4 ack 40 [0 0 0 0] ------- [2:0 0:0 32 0] [1 0] 0 0
s 1.055070010 _2_ RTR  --- 4 ack 40 [0 0 0 0] ------- [2:0 0:0 30 1] [1 0] 0 0
r 1.055359627 _1_ MAC  --- 0 ACK 38 [0 1 0 0] 
s 1.055549010 _2_ MAC  --- 0 RTS 44 [58e 1 2 0] 
r 1.055901627 _1_ MAC  --- 0 RTS 44 [58e 1 2 0] 
s 1.055911627 _1_ MAC  --- 0 CTS 38 [454 2 0 0] 
r 1.056216244 _2_ MAC  --- 0 CTS 38 [454 2 0 0] 
s 1.056226244 _2_ MAC  --- 4 ack 98 [13a 1 2 800] ------- [2:0 0:0 30 1] [1 0] 0 0
r 1.057010861 _1_ MAC  --- 4 ack 40 [13a 1 2 800] ------- [2:0 0:0 30 1] [1 0] 1 0
s 1.057020861 _1_ MAC  --- 0 ACK 38 [0 2 0 0] 
r 1.057035861 _1_ RTR  --- 4 ack 40 [13a 1 2 800] ------- [2:0 0:0 30 1] [1 0] 1 0
f 1.057035861 _1_ RTR  --- 4 ack 40 [13a 1 2 800] ------- [2:0 0:0 29 0] [1 0] 1 0
r 1.057325478 _2_ MAC  --- 0 ACK 38 [0 2 0 0] 
s 1.057525464 _0_ MAC  --- 0 RTS 44 [346e 1 0 0] 
r 1.057878068 _1_ MAC  --- 0 RTS 44 [346e 1 0 0] 
s 1.057888068 _1_ MAC  --- 0 CTS 38 [3334 0 0 0] 
r 1.058192671 _0_ MAC  --- 0 CTS 38 [3334 0 0 0] 
s 1.058202671 _0_ MAC  --- 3 tcp 1598 [13a 1 0 800] ------- [0:0 2:0 30 1] [2 0] 0 0
r 1.070987275 _1_ MAC  --- 3 tcp 1540 [13a 1 0 800] ------- [0:0 2:0 30 1] [2 0] 1 0
s 1.070997275 _1_ MAC  --- 0 ACK 38 [0 0 0 0] 
r 1.071012275 _1_ RTR  --- 3 tcp 1540 [13a 1 0 800] ------- [0:0 2:0 30 1] [2 0] 1 0
f 1.071012275 _1_ RTR  --- 3 tcp 1540 [13a 1 0 800] ------- [0:0 2:0 29 2] [2 0] 1 0
r 1.071301878 _0_ MAC  --- 0 ACK 38 [0 0 0 0] 
s 1.071491275 _1_ MAC  --- 0 RTS 44 [58e 0 1 0] 
r 1.071843878 _0_ MAC  --- 0 RTS 44 [58e 0 1 0] 
s 1.071853878 _0_ MAC  --- 0 CTS 38 [454 1 0 0] 
r 1.072158482 _1_ MAC  --- 0 CTS 38 [454 1 0 0] 
s 1.072168482 _1_ MAC  --- 4 ack 98 [13a 0 1 800] ------- [2:0 0:0 29 0] [1 0] 1 0
r 1.072953085 _0_ MAC  --- 4 ack 40 [13a 0 1 800] ------- [2:0 0:0 29 0] [1 0] 2 0
s 1.072963085 _0_ MAC  --- 0 ACK 38 [0 1 0 0] 
r 1.072978085 _0_ AGT  --- 4 ack 40 [13a 0 1 800] ------- [2:0 0:0 29 0] [1 0] 2 0
s 1.072978085 _0_ AGT  --- 5 tcp 1540 [0 0 0 0] ------- [0:0 2:0 32 0] [3 0] 0 0
r 1.072978085 _0_ RTR  --- 5 tcp 1540 [0 0 0 0] ------- [0:0 2:0 32 0] [3 0] 0 0
s 1.072978085 _0_ AGT  --- 6 tcp 1540 [0 0 0 0] ------- [0:0 2:0 32 0] [4 0] 0 0
r 1.072978085 _0_ RTR  --- 6 tcp 1540 [0 0 0 0] ------- [0:0 2:0 32 0] [4 0] 0 0
s 1.072978085 _0_ RTR  --- 5 tcp 1540 [0 0 0 0] ------- [0:0 2:0 30 1] [3 0] 0 0
s 1.072978085 _0_ RTR  --- 6 tcp 1540 [0 0 0 0] ------- [0:0 2:0 30 1] [4 0] 0 0
r 1.073267689 _1_ MAC  --- 0 ACK 38 [0 1 0 0] 
s 1.073537689 _1_ MAC  --- 0 RTS 44 [346e 2 1 0] 
r 1.073890306 _2_ MAC  --- 0 RTS 44 [346e 2 1 0] 
s 1.073900306 _2_ MAC  --- 0 CTS 38 [3334 1 0 0] 
r 1.074204923 _1_ MAC  --- 0 CTS 38 [3334 1 0 0] 
s 1.074214923 _1_ MAC  --- 3 tcp 1598 [13a 2 1 800] ------- [0:0 2:0 29 2] [2 0] 1 0
r 1.086999540 _2_ MAC  --- 3 tcp 1540 [13a 2 1 800] ------- [0:0 2:0 29 2] [2 0] 2 0
s 1.087009540 _2_ MAC  --- 0 ACK 38 [0 1 0 0] 
r 1.087024540 _2_ AGT  --- 3 tcp 1540 [13a 2 1 800] ------- [0:0 2:0 29 2] [2 0] 2 0
s 1.087024540 _2_ AGT  --- 7 ack 40 [0 0 0 0] ------- [2:0 0:0 32 0] [2 0] 0 0
r 1.087024540 _2_ RTR  --- 7 ack 40 [0 0 0 0] ------- [2:0 0:0 32 0] [2 0] 0 0
s 1.087024540 _2_ RTR  --- 7 ack 40 [0 0 0 0] ------- [2:0 0:0 30 1] [2 0] 0 0
r 1.087314156 _1_ MAC  --- 0 ACK 38 [0 1 0 0] 
s 1.087563540 _2_ MAC  --- 0 RTS 44 [58e 1 2 0] 
r 1.087916156 _1_ MAC  --- 0 RTS 44 [58e 1 2 0] 
s 1.087926156 _1_ MAC  --- 0 CTS 38 [454 2 0 0] 
r 1.088230773 _2_ MAC  --- 0 CTS 38 [454 2 0 0] 
s 1.088240773 _2_ MAC  --- 7 ack 98 [13a 1 2 800] ------- [2:0 0:0 30 1] [2 0] 0 0
r 1.089025390 _1_ MAC  --- 7 ack 40 [13a 1 2 800] ------- [2:0 0:0 30 1] [2 0] 1 0
s 1.089035390 _1_ MAC  --- 0 ACK 38 [0 2 0 0] 
r 1.089050390 _1_ RTR  --- 7 ack 40 [13a 1 2 800] ------- [2:0 0:0 30 1] [2 0] 1 0
f 1.089050390 _1_ RTR  --- 7 ack 40 [13a 1 2 800] ------- [2:0 0:0 29 0] [2 0] 1 0
r 1.089340007 _2_ MAC  --- 0 ACK 38 [0 2 0 0] 
s 1.089739993 _0_ MAC  --- 0 RTS 44 [346e 1 0 0] 
r 1.090092597 _1_ MAC  --- 0 RTS 44 [346e 1 0 0] 
s 1.090102597 _1_ MAC  --- 0 CTS 38 [3334 0 0 0] 
r 1.090407200 _0_ MAC  --- 0 CTS 38 [3334 0 0 0] 
s 1.090417200 _0_ MAC  --- 5 tcp 1598 [13a 1 0 800] ------- [0:0 2:0 30 1] [3 0] 0 0
r 1.103201804 _1_ MAC  --- 5 tcp 1540 [13a 1 0 800] ------- [0:0 2:0 30 1] [3 0] 1 0
s 1.103211804 _1_ MAC  --- 0 ACK 38 [0 0 0 0] 
r 1.103226804 _1_ RTR  --- 5 tcp 1540 [13a 1 0 800] ------- [0:0 2:0 30 1] [3 0] 1 0
f 1.103226804 _1_ RTR  --- 5 tcp 1540 [13a 1 0 800] ------- [0:0 2:0 29 2] [3 0] 1 0
r 1.103516408 _0_ MAC  --- 0 ACK 38 [0 0 0 0] 
s 1.103625804 _1_ MAC  --- 0 RTS 44 [58e 0 1 0] 
r 1.103978408 _0_ MAC  --- 0 RTS 44 [58e 0 1 0] 
s 1.103988408 _0_ MAC  --- 0 CTS 38 [454 1 0 0] 
r 1.104293011 _1_ MAC  --- 0 CTS 38 [454 1 0 0] 
s 1.104303011 _1_ MAC  --- 7 ack 98 [13a 0 1 800] ------- [2:0 0:0 29 0] [2 0] 1 0
r 1.105087615 _0_ MAC  --- 7 ack 40 [13a 0 1 800] ------- [2:0 0:0 29 0] [2 0] 2 0
s 1.105097615 _0_ MAC  --- 0 ACK 38 [0 1 0 0] 
r 1.105112615 _0_ AGT  --- 7 ack 40 [13a 0 1 800] ------- [2:0 0:0 29 0] [2 0] 2 0
s 1.105112615 _0_ AGT  --- 8 tcp 1540 [0 0 0 0] ------- [0:0 2:0 32 0] [5 0] 0 0
r 1.105112615 _0_ RTR  --- 8 tcp 1540 [0 0 0 0] ------- [0:0 2:0 32 0] [5 0] 0 0
s 1.105112615 _0_ AGT  --- 9 tcp 1540 [0 0 0 0] ------- [0:0 2:0 32 0] [6 0] 0 0
r 1.105112615 _0_ RTR  --- 9 tcp 1540 [0 0 0 0] ------- [0:0 2:0 32 0] [6 0] 0 0
s 1.105112615 _0_ RTR  --- 8 tcp 1540 [0 0 0 0] ------- [0:0 2:0 30 1] [5 0] 0 0
s 1.105112615 _0_ RTR  --- 9 tcp 1540 [0 0 0 0] ------- [0:0 2:0 30 1] [6 0] 0 0
r 1.105402218 _1_ MAC  --- 0 ACK 38 [0 1 0 0] 
s 1.105531615 _0_ MAC  --- 0 RTS 44 [346e 1 0 0] 
r 1.105884218 _1_ MAC  --- 0 RTS 44 [346e 1 0 0] 
s 1.105894218 _1_ MAC  --- 0 CTS 38 [3334 0 0 0] 
r 1.106198822 _0_ MAC  --- 0 CTS 38 [3334 0 0 0] 
s 1.106208822 _0_ MAC  --- 6 tcp 1598 [13a 1 0 800] ------- [0:0 2:0 30 1] [4 0] 0 0
r 1.118993425 _1_ MAC  --- 6 tcp 1540 [13a 1 0 800] ------- [0:0 2:0 30 1] [4 0] 1 0
s 1.119003425 _1_ MAC  --- 0 ACK 38 [0 0 0 0] 
r 1.119018425 _1_ RTR  --- 6 tcp 1540 [13a 1 0 800] ------- [0:0 2:0 30 1] [4 0] 1 0
f 1.119018425 _1_ RTR  --- 6 tcp 1540 [13a 1 0 800] ------- [0:0 2:0 29 2] [4 0] 1 0
r 1.119308029 _0_ MAC  --- 0 ACK 38 [0 0 0 0] 
s 1.119637425 _1_ MAC  --- 0 RTS 44 [346e 2 1 0] 
r 1.119990042 _2_ MAC  --- 0 RTS 44 [346e 2 1 0] 
s 1.120000042 _2_ MAC  --- 0 CTS 38 [3334 1 0 0] 
r 1.120304659 _1_ MAC  --- 0 CTS 38 [3334 1 0 0] 
s 1.120314659 _1_ MAC  --- 5 tcp 1598 [13a 2 1 800] ------- [0:0 2:0 29 2] [3 0] 1 0
r 1.133099276 _2_ MAC  --- 5 tcp 1540 [13a 2 1 800] ------- [0:0 2:0 29 2] [3 0] 2 0
s 1.133109276 _2_ MAC  --- 0 ACK 38 [0 1 0 0] 
r 1.133124276 _2_ AGT  --- 5 tcp 1540 [13a 2 1 800] ------- [0:0 2:0 29 2] [3 0] 2 0
s 1.133124276 _2_ AGT  --- 10 ack 40 [0 0 0 0] ------- [2:0 0:0 32 0] [3 0] 0 0
r 1.133124276 _2_ RTR  --- 10 ack 40 [0 0 0 0] ------- [2:0 0:0 32 0] [3 0] 0 0
s 1.133124276 _2_ RTR  --- 10 ack 40 [0 0 0 0] ------- [2:0 0:0 30 1] [3 0] 0 0
r 1.133413893 _1_ MAC  --- 0 ACK 38 [0 1 0 0] 
s 1.133643893 _1_ MAC  --- 0 RTS 44 [346e 2 1 0] 
r 1.133996510 _2_ MAC  --- 0 RTS 44 [346e 2 1 0] 
s 1.134006510 _2_ MAC  --- 0 CTS 38 [3334 1 0 0] 
r 1.134311127 _1_ MAC  --- 0 CTS 38 [3334 1 0 0] 
s 1.134321127 _1_ MAC  --- 6 tcp 1598 [13a 2 1 800] ------- [0:0 2:0 29 2] [4 0] 1 0
r 1.147105744 _2_ MAC  --- 6 tcp 1540 [13a 2 1 800] ------- [0:0 2:0 29 2] [4 0] 2 0
s 1.147115744 _2_ MAC  --- 0 ACK 38 [0 1 0 0] 
r 1.147130744 _2_ AGT  --- 6 tcp 1540 [13a 2 1 800] ------- [0:0 2:0 29 2] [4 0] 2 0
s 1.147130744 _2_ AGT  --- 11 ack 40 [0 0 0 0] ------- [2:0 0:0 32 0] [4 0] 0 0
r 1.147130744 _2_ RTR  --- 11 ack 40 [0 0 0 0] ------- [2:0 0:0 32 0] [4 0] 0 0
s 1.147130744 _2_ RTR  --- 11 ack 40 [0 0 0 0] ------- [2:0 0:0 30 1] [4 0] 0 0
r 1.147420361 _1_ MAC  --- 0 ACK 38 [0 1 0 0] 
s 1.147569744 _2_ MAC  --- 0 RTS 44 [58e 1 2 0] 
r 1.147922361 _1_ MAC  --- 0 RTS 44 [58e 1 2 0] 
s 1.147932361 _1_ MAC  --- 0 CTS 38 [454 2 0 0] 
r 1.148236977 _2_ MAC  --- 0 CTS 38 [454 2 0 0] 
s 1.148246977 _2_ MAC  --- 10 ack 98 [13a 1 2 800] ------- [2:0 0:0 30 1] [3 0] 0 0
r 1.149031594 _1_ MAC  --- 10 ack 40 [13a 1 2 800] ------- [2:0 0:0 30 1] [3 0] 1 0
s 1.149041594 _1_ MAC  --- 0 ACK 38 [0 2 0 0] 
r 1.149056594 _1_ RTR  --- 10 ack 40 [13a 1 2 800] ------- [2:0 0:0 30 1] [3 0] 1 0
f 1.149056594 _1_ RTR  --- 10 ack 40 [13a 1 2 800] ------- [2:0 0:0 29 0] [3 0] 1 0
r 1.149346211 _2_ MAC  --- 0 ACK 38 [0 2 0 0] 
s 1.149595594 _1_ MAC  --- 0 RTS 44 [58e 0 1 0] 
r 1.149948198 _0_ MAC  --- 0 RTS 44 [58e 0 1 0] 
s 1.149958198 _0_ MAC  --- 0 CTS 38 [454 1 0 0] 
r 1.150262801 _1_ MAC  --- 0 CTS 38 [454 1 0 0] 
s 1.150272801 _1_ MAC  --- 10 ack 98 [13a 0 1 800] ------- [2:0 0:0 29 0] [3 0] 1 0
r 1.151057405 _0_ MAC  --- 10 ack 40 [13a 0 1 800] ------- [2:0 0:0 29 0] [3 0] 2 0
s 1.151067405 _0_ MAC  --- 0 ACK 38 [0 1 0 0] 
r 1.151082405 _0_ AGT  --- 10 ack 40 [13a 0 1 800] ------- [2:0 0:0 29 0] [3 0] 2 0
s 1.151082405 _0_ AGT  --- 12 tcp 1540 [0 0 0 0] ------- [0:0 2:0 32 0] [7 0] 0 0
r 1.151082405 _0_ RTR  --- 12 tcp 1540 [0 0 0 0] ------- [0:0 2:0 32 0] [7 0] 0 0
s 1.151082405 _0_ AGT  --- 13 tcp 1540 [0 0 0 0] ------- [0:0 2:0 32 0] [8 0] 0 0
r 1.151082405 _0_ RTR  --- 13 tcp 1540 [0 0 0 0] ------- [0:0 2:0 32 0] [8 0] 0 0
s 1.151082405 _0_ RTR  --- 12 tcp 1540 [0 0 0 0] ------- [0:0 2:0 30 1] [7 0] 0 0
s 1.151082405 _0_ RTR  --- 13 tcp 1540 [0 0 0 0] ------- [0:0 2:0 30 1] [8 0] 0 0
r 1.151372009 _1_ MAC  --- 0 ACK 38 [0 1 0 0] 
s 1.151521405 _0_ MAC  --- 0 RTS 44 [346e 1 0 0] 
r 1.151874009 _1_ MAC  --- 0 RTS 44 [346e 1 0 0] 
s 1.151884009 _1_ MAC  --- 0 CTS 38 [3334 0 0 0] 
r 1.152188612 _0_ MAC  --- 0 CTS 38 [3334 0 0 0] 
s 1.152198612 _0_ MAC  --- 8 tcp 1598 [13a 1 0 800] ------- [0:0 2:0 30 1] [5 0] 0 0
r 1.164983216 _1_ MAC  --- 8 tcp 1540 [13a 1 0 800] ------- [0:0 2:0 30 1] [5 0] 1 0
s 1.164993216 _1_ MAC  --- 0 ACK 38 [0 0 0 0] 
r 1.165008216 _1_ RTR  --- 8 tcp 1540 [13a 1 0 800] ------- [0:0 2:0 30 1] [5 0] 1 0
f 1.165008216 _1_ RTR  --- 8 tcp 1540 [13a 1 0 800] ------- [0:0 2:0 29 2] [5 0] 1 0
r 1.165297819 _0_ MAC  --- 0 ACK 38 [0 0 0 0] 
s 1.165567216 _1_ MAC  --- 0 RTS 44 [346e 2 1 0] 
r 1.165919833 _2_ MAC  --- 0 RTS 44 [346e 2 1 0] 
s 1.165929833 _2_ MAC  --- 0 CTS 38 [3334 1 0 0] 
r 1.166234450 _1_ MAC  --- 0 CTS 38 [3334 1 0 0] 
s 1.166244450 _1_ MAC  --- 8 tcp 1598 [13a 2 1 800] ------- [0:0 2:0 29 2] [5 0] 1 0
r 1.179029066 _2_ MAC  --- 8 tcp 1540 [13a 2 1 800] ------- [0:0 2:0 29 2] [5 0] 2 0
s 1.179039066 _2_ MAC  --- 0 ACK 38 [0 1 0 0] 
r 1.179054066 _2_ AGT  --- 8 tcp 1540 [13a 2 1 800] ------- [0:0 2:0 29 2] [5 0] 2 0
s 1.179054066 _2_ AGT  --- 14 ack 40 [0 0 0 0] ------- [2:0 0:0 32 0] [5 0] 0 0
r 1.179054066 _2_ RTR  --- 14 ack 40 [0 0 0 0] ------- [2:0 0:0 32 0] [5 0] 0 0
s 1.179054066 _2_ RTR  --- 14 ack 40 [0 0 0 0] ------- [2:0 0:0 30 1] [5 0] 0 0
r 1.179343683 _1_ MAC  --- 0 ACK 38 [0 1 0 0] 
s 1.179533066 _2_ MAC  --- 0 RTS 44 [58e 1 2 0] 
r 1.179885683 _1_ MAC  --- 0 RTS 44 [58e 1 2 0] 
s 1.179895683 _1_ MAC  --- 0 CTS 38 [454 2 0 0] 
r 1.180200300 _2_ MAC  --- 0 CTS 38 [454 2 0 0] 
s 1.180210300 _2_ MAC  --- 11 ack 98 [13a 1 2 800] ------- [2:0 0:0 30 1] [4 0] 0 0
r 1.180994917 _1_ MAC  --- 11 ack 40 [13a 1 2 800] ------- [2:0 0:0 30 1] [4 0] 1 0
s 1.181004917 _1_ MAC  --- 0 ACK 38 [0 2 0 0] 
r 1.181019917 _1_ RTR  --- 11 ack 40 [13a 1 2 800] ------- [2:0 0:0 30 1] [4 0] 1 0
f 1.181019917 _1_ RTR  --- 11 ack 40 [13a 1 2 800] ------- [2:0 0:0 29 0] [4 0] 1 0
r 1.181309534 _2_ MAC  --- 0 ACK 38 [0 2 0 0] 
s 1.181398917 _1_ MAC  --- 0 RTS 44 [58e 0 1 0] 
r 1.181751521 _0_ MAC  --- 0 RTS 44 [58e 0 1 0] 
s 1.181761521 _0_ MAC  --- 0 CTS 38 [454 1 0 0] 
r 1.182066124 _1_ MAC  --- 0 CTS 38 [454 1 0 0] 
s 1.182076124 _1_ MAC  --- 11 ack 98 [13a 0 1 800] ------- [2:0 0:0 29 0] [4 0] 1 0
r 1.182860728 _0_ MAC  --- 11 ack 40 [13a 0 1 800] ------- [2:0 0:0 29 0] [4 0] 2 0
s 1.182870728 _0_ MAC  --- 0 ACK 38 [0 1 0 0] 
r 1.182885728 _0_ AGT  --- 11 ack 40 [13a 0 1 800] ------- [2:0 0:0 29 0] [4 0] 2 0
s 1.182885728 _0_ AGT  --- 15 tcp 1540 [0 0 0 0] ------- [0:0 2:0 32 0] [9 0] 0 0
r 1.182885728 _0_ RTR  --- 15 tcp 1540 [0 0 0 0] ------- [0:0 2:0 32 0] [9 0] 0 0
s 1.182885728 _0_ AGT  --- 16 tcp 1540 [0 0 0 0] ------- [0:0 2:0 32 0] [10 0] 0 0
r 1.182885728 _0_ RTR  --- 16 tcp 1540 [0 0 0 0] ------- [0:0 2:0 32 0] [10 0] 0 0
s 1.182885728 _0_ RTR  --- 15 tcp 1540 [0 0 0 0] ------- [0:0 2:0 30 1] [9 0] 0 0
s 1.182885728 _0_ RTR  --- 16 tcp 1540 [0 0 0 0] ------- [0:0 2:0 30 1] [10 0] 0 0
r 1.183175331 _1_ MAC  --- 0 ACK 38 [0 1 0 0] 
s 1.183344728 _0_ MAC  --- 0 RTS 44 [346e 1 0 0] 
r 1.183697331 _1_ MAC  --- 0 RTS 44 [346e 1 0 0] 
s 1.183707331 _1_ MAC  --- 0 CTS 38 [3334 0 0 0] 
r 1.184011935 _0_ MAC  --- 0 CTS 38 [3334 0 0 0] 
s 1.184021935 _0_ MAC  --- 9 tcp 1598 [13a 1 0 800] ------- [0:0 2:0 30 1] [6 0] 0 0
r 1.196806538 _1_ MAC  --- 9 tcp 1540 [13a 1 0 800] ------- [0:0 2:0 30 1] [6 0] 1 0
s 1.196816538 _1_ MAC  --- 0 ACK 38 [0 0 0 0] 
r 1.196831538 _1_ RTR  --- 9 tcp 1540 [13a 1 0 800] ------- [0:0 2:0 30 1] [6 0] 1 0
f 1.196831538 _1_ RTR  --- 9 tcp 1540 [13a 1 0 800] ------- [0:0 2:0 29 2] [6 0] 1 0
r 1.197121142 _0_ MAC  --- 0 ACK 38 [0 0 0 0] 
s 1.197171142 _0_ MAC  --- 0 RTS 44 [346e 1 0 0] 
r 1.197523746 _1_ MAC  --- 0 RTS 44 [346e 1 0 0] 
s 1.197533746 _1_ MAC  --- 0 CTS 38 [3334 0 0 0] 
r 1.197838349 _0_ MAC  --- 0 CTS 38 [3334 0 0 0] 
s 1.197848349 _0_ MAC  --- 12 tcp 1598 [13a 1 0 800] ------- [0:0 2:0 30 1] [7 0] 0 0
r 1.210632953 _1_ MAC  --- 12 tcp 1540 [13a 1 0 800] ------- [0:0 2:0 30 1] [7 0] 1 0
s 1.210642953 _1_ MAC  --- 0 ACK 38 [0 0 0 0] 
r 1.210657953 _1_ RTR  --- 12 tcp 1540 [13a 1 0 800] ------- [0:0 2:0 30 1] [7 0] 1 0
f 1.210657953 _1_ RTR  --- 12 tcp 1540 [13a 1 0 800] ------- [0:0 2:0 29 2] [7 0] 1 0
r 1.210947556 _0_ MAC  --- 0 ACK 38 [0 0 0 0] 
s 1.211237556 _0_ MAC  --- 0 RTS 44 [346e 1 0 0] 
r 1.211590160 _1_ MAC  --- 0 RTS 44 [346e 1 0 0] 
s 1.211600160 _1_ MAC  --- 0 CTS 38 [3334 0 0 0] 
r 1.211904763 _0_ MAC  --- 0 CTS 38 [3334 0 0 0] 
s 1.211914763 _0_ MAC  --- 13 tcp 1598 [13a 1 0 800] ------- [0:0 2:0 30 1] [8 0] 0 0
r 1.224699367 _1_ MAC  --- 13 tcp 1540 [13a 1 0 800] ------- [0:0 2:0 30 1] [8 0] 1 0
s 1.224709367 _1_ MAC  --- 0 ACK 38 [0 0 0 0] 
r 1.224724367 _1_ RTR  --- 13 tcp 1540 [13a 1 0 800] ------- [0:0 2:0 30 1] [8 0] 1 0
f 1.224724367 _1_ RTR  --- 13 tcp 1540 [13a 1 0 800] ------- [0:0 2:0 29 2] [8 0] 1 0
r 1.225013971 _0_ MAC  --- 0 ACK 38 [0 0 0 0] 
s 1.225123367 _1_ MAC  --- 0 RTS 44 [346e 2 1 0] 
r 1.225475984 _2_ MAC  --- 0 RTS 44 [346e 2 1 0] 
s 1.225485984 _2_ MAC  --- 0 CTS 38 [3334 1 0 0] 
r 1.225790601 _1_ MAC  --- 0 CTS 38 [3334 1 0 0] 
s 1.225800601 _1_ MAC  --- 9 tcp 1598 [13a 2 1 800] ------- [0:0 2:0 29 2] [6 0] 1 0
r 1.238585218 _2_ MAC  --- 9 tcp 1540 [13a 2 1 800] ------- [0:0 2:0 29 2] [6 0] 2 0
s 1.238595218 _2_ MAC  --- 0 ACK 38 [0 1 0 0] 
r 1.238610218 _2_ AGT  --- 9 tcp 1540 [13a 2 1 800] ------- [0:0 2:0 29 2] [6 0] 2 0
s 1.238610218 _2_ AGT  --- 17 ack 40 [0 0 0 0] ------- [2:0 0:0 32 0] [6 0] 0 0
r 1.238610218 _2_ RTR  --- 17 ack 40 [0 0 0 0] ------- [2:0 0:0 32 0] [6 0] 0 0
s 1.238610218 _2_ RTR  --- 17 ack 40 [0 0 0 0] ------- [2:0 0:0 30 1] [6 0] 0 0
r 1.238899835 _1_ MAC  --- 0 ACK 38 [0 1 0 0] 
s 1.238969218 _2_ MAC  --- 0 RTS 44 [58e 1 2 0] 
r 1.239321835 _1_ MAC  --- 0 RTS 44 [58e 1 2 0] 
s 1.239331835 _1_ MAC  --- 0 CTS 38 [454 2 0 0] 
r 1.239636451 _2_ MAC  --- 0 CTS 38 [454 2 0 0] 
s 1.239646451 _2_ MAC  --- 14 ack 98 [13a 1 2 800] ------- [2:0 0:0 30 1] [5 0] 0 0
r 1.240431068 _1_ MAC  --- 14 ack 40 [13a 1 2 800] ------- [2:0 0:0 30 1] [5 0] 1 0
s 1.240441068 _1_ MAC  --- 0 ACK 38 [0 2 0 0] 
r 1.240456068 _1_ RTR  --- 14 ack 40 [13a 1 2 800] ------- [2:0 0:0 30 1] [5 0] 1 0
f 1.240456068 _1_ RTR  --- 14 ack 40 [13a 1 2 800] ------- [2:0 0:0 29 0] [5 0] 1 0
r 1.240745685 _2_ MAC  --- 0 ACK 38 [0 2 0 0] 
s 1.240815685 _2_ MAC  --- 0 RTS 44 [58e 1 2 0] 
r 1.241168302 _1_ MAC  --- 0 RTS 44 [58e 1 2 0] 
s 1.241178302 _1_ MAC  --- 0 CTS 38 [454 2 0 0] 
r 1.241482919 _2_ MAC  --- 0 CTS 38 [454 2 0 0] 
s 1.241492919 _2_ MAC  --- 17 ack 98 [13a 1 2 800] ------- [2:0 0:0 30 1] [6 0] 0 0
r 1.242277536 _1_ MAC  --- 17 ack 40 [13a 1 2 800] ------- [2:0 0:0 30 1] [6 0] 1 0
s 1.242287536 _1_ MAC  --- 0 ACK 38 [0 2 0 0] 
r 1.242302536 _1_ RTR  --- 17 ack 40 [13a 1 2 800] ------- [2:0 0:0 30 1] [6 0] 1 0
f 1.242302536 _1_ RTR  --- 17 ack 40 [13a 1 2 800] ------- [2:0 0:0 29 0] [6 0] 1 0
r 1.242592153 _2_ MAC  --- 0 ACK 38 [0 2 0 0] 
s 1.242901536 _1_ MAC  --- 0 RTS 44 [346e 2 1 0] 
r 1.243254153 _2_ MAC  --- 0 RTS 44 [346e 2 1 0] 
s 1.243264153 _2_ MAC  --- 0 CTS 38 [3334 1 0 0] 
r 1.243568770 _1_ MAC  --- 0 CTS 38 [3334 1 0 0] 
s 1.243578770 _1_ MAC  --- 12 tcp 1598 [13a 2 1 800] ------- [0:0 2:0 29 2] [7 0] 1 0